<?xml version="1.0"?> 
<VTKFile type="UnstructuredGrid"> 
   <UnstructuredGrid> 
      <Piece NumberOfPoints=" 125 "  NumberOfCells=" 780 ">
          <Points> 
             <DataArray type="Float64" NumberOfComponents="3" format="ascii"> 
0.0 0.0 0.0
0.0 10.0 0.0
0.0 20.0 0.0
0.0 30.0 0.0
0.0 40.0 0.0
10.0 0.0 0.0
10.0 10.0 0.0
10.0 20.0 0.0
10.0 30.0 0.0
10.0 40.0 0.0
20.0 0.0 0.0
20.0 10.0 0.0
20.0 20.0 0.0
20.0 30.0 0.0
20.0 40.0 0.0
30.0 0.0 0.0
30.0 10.0 0.0
30.0 20.0 0.0
30.0 30.0 0.0
30.0 40.0 0.0
40.0 0.0 0.0
40.0 10.0 0.0
40.0 20.0 0.0
40.0 30.0 0.0
40.0 40.0 0.0
0.0 0.0 10.0
0.0 10.0 10.0
0.0 20.0 10.0
0.0 30.0 10.0
0.0 40.0 10.0
10.0 0.0 10.0
10.0 10.0 10.0
10.0 20.0 10.0
10.0 30.0 10.0
10.0 40.0 10.0
20.0 0.0 10.0
20.0 10.0 10.0
20.0 20.0 10.0
20.0 30.0 10.0
20.0 40.0 10.0
30.0 0.0 10.0
30.0 10.0 10.0
30.0 20.0 10.0
30.0 30.0 10.0
30.0 40.0 10.0
40.0 0.0 10.0
40.0 10.0 10.0
40.0 20.0 10.0
40.0 30.0 10.0
40.0 40.0 10.0
0.0 0.0 20.0
0.0 10.0 20.0
0.0 20.0 20.0
0.0 30.0 20.0
0.0 40.0 20.0
10.0 0.0 20.0
10.0 10.0 20.0
10.0 20.0 20.0
10.0 30.0 20.0
10.0 40.0 20.0
20.0 0.0 20.0
20.0 10.0 20.0
20.0 20.0 20.0
20.0 30.0 20.0
20.0 40.0 20.0
30.0 0.0 20.0
30.0 10.0 20.0
30.0 20.0 20.0
30.0 30.0 20.0
30.0 40.0 20.0
40.0 0.0 20.0
40.0 10.0 20.0
40.0 20.0 20.0
40.0 30.0 20.0
40.0 40.0 20.0
0.0 0.0 30.0
0.0 10.0 30.0
0.0 20.0 30.0
0.0 30.0 30.0
0.0 40.0 30.0
10.0 0.0 30.0
10.0 10.0 30.0
10.0 20.0 30.0
10.0 30.0 30.0
10.0 40.0 30.0
20.0 0.0 30.0
20.0 10.0 30.0
20.0 20.0 30.0
20.0 30.0 30.0
20.0 40.0 30.0
30.0 0.0 30.0
30.0 10.0 30.0
30.0 20.0 30.0
30.0 30.0 30.0
30.0 40.0 30.0
40.0 0.0 30.0
40.0 10.0 30.0
40.0 20.0 30.0
40.0 30.0 30.0
40.0 40.0 30.0
0.0 0.0 40.0
0.0 10.0 40.0
0.0 20.0 40.0
0.0 30.0 40.0
0.0 40.0 40.0
10.0 0.0 40.0
10.0 10.0 40.0
10.0 20.0 40.0
10.0 30.0 40.0
10.0 40.0 40.0
20.0 0.0 40.0
20.0 10.0 40.0
20.0 20.0 40.0
20.0 30.0 40.0
20.0 40.0 40.0
30.0 0.0 40.0
30.0 10.0 40.0
30.0 20.0 40.0
30.0 30.0 40.0
30.0 40.0 40.0
40.0 0.0 40.0
40.0 10.0 40.0
40.0 20.0 40.0
40.0 30.0 40.0
40.0 40.0 40.0
             </DataArray> 
          </Points> 
          <Cells> 
             <DataArray type="Int32" Name="connectivity" format="ascii"> 
0 1
0 5
0 6
0 25
0 26
0 30
1 5
1 25
5 25
1 2
1 6
1 7
1 26
1 27
1 31
2 6
2 26
6 26
2 3
2 7
2 8
2 27
2 28
2 32
3 7
3 27
7 27
3 4
3 8
3 9
3 28
3 29
3 33
4 8
4 28
8 28
5 6
5 10
5 11
5 30
5 31
5 35
6 10
6 30
10 30
6 7
6 11
6 12
6 31
6 32
6 36
7 11
7 31
11 31
7 8
7 12
7 13
7 32
7 33
7 37
8 12
8 32
12 32
8 9
8 13
8 14
8 33
8 34
8 38
9 13
9 33
13 33
10 11
10 15
10 16
10 35
10 36
10 40
11 15
11 35
15 35
11 12
11 16
11 17
11 36
11 37
11 41
12 16
12 36
16 36
12 13
12 17
12 18
12 37
12 38
12 42
13 17
13 37
17 37
13 14
13 18
13 19
13 38
13 39
13 43
14 18
14 38
18 38
15 16
15 20
15 21
15 40
15 41
15 45
16 20
16 40
20 40
16 17
16 21
16 22
16 41
16 42
16 46
17 21
17 41
21 41
17 18
17 22
17 23
17 42
17 43
17 47
18 22
18 42
22 42
18 19
18 23
18 24
18 43
18 44
18 48
19 23
19 43
23 43
25 26
25 30
25 31
25 50
25 51
25 55
26 30
26 50
30 50
26 27
26 31
26 32
26 51
26 52
26 56
27 31
27 51
31 51
27 28
27 32
27 33
27 52
27 53
27 57
28 32
28 52
32 52
28 29
28 33
28 34
28 53
28 54
28 58
29 33
29 53
33 53
30 31
30 35
30 36
30 55
30 56
30 60
31 35
31 55
35 55
31 32
31 36
31 37
31 56
31 57
31 61
32 36
32 56
36 56
32 33
32 37
32 38
32 57
32 58
32 62
33 37
33 57
37 57
33 34
33 38
33 39
33 58
33 59
33 63
34 38
34 58
38 58
35 36
35 40
35 41
35 60
35 61
35 65
36 40
36 60
40 60
36 37
36 41
36 42
36 61
36 62
36 66
37 41
37 61
41 61
37 38
37 42
37 43
37 62
37 63
37 67
38 42
38 62
42 62
38 39
38 43
38 44
38 63
38 64
38 68
39 43
39 63
43 63
40 41
40 45
40 46
40 65
40 66
40 70
41 45
41 65
45 65
41 42
41 46
41 47
41 66
41 67
41 71
42 46
42 66
46 66
42 43
42 47
42 48
42 67
42 68
42 72
43 47
43 67
47 67
43 44
43 48
43 49
43 68
43 69
43 73
44 48
44 68
48 68
50 51
50 55
50 56
50 75
50 76
50 80
51 55
51 75
55 75
51 52
51 56
51 57
51 76
51 77
51 81
52 56
52 76
56 76
52 53
52 57
52 58
52 77
52 78
52 82
53 57
53 77
57 77
53 54
53 58
53 59
53 78
53 79
53 83
54 58
54 78
58 78
55 56
55 60
55 61
55 80
55 81
55 85
56 60
56 80
60 80
56 57
56 61
56 62
56 81
56 82
56 86
57 61
57 81
61 81
57 58
57 62
57 63
57 82
57 83
57 87
58 62
58 82
62 82
58 59
58 63
58 64
58 83
58 84
58 88
59 63
59 83
63 83
60 61
60 65
60 66
60 85
60 86
60 90
61 65
61 85
65 85
61 62
61 66
61 67
61 86
61 87
61 91
62 66
62 86
66 86
62 63
62 67
62 68
62 87
62 88
62 92
63 67
63 87
67 87
63 64
63 68
63 69
63 88
63 89
63 93
64 68
64 88
68 88
65 66
65 70
65 71
65 90
65 91
65 95
66 70
66 90
70 90
66 67
66 71
66 72
66 91
66 92
66 96
67 71
67 91
71 91
67 68
67 72
67 73
67 92
67 93
67 97
68 72
68 92
72 92
68 69
68 73
68 74
68 93
68 94
68 98
69 73
69 93
73 93
75 76
75 80
75 81
75 100
75 101
75 105
76 80
76 100
80 100
76 77
76 81
76 82
76 101
76 102
76 106
77 81
77 101
81 101
77 78
77 82
77 83
77 102
77 103
77 107
78 82
78 102
82 102
78 79
78 83
78 84
78 103
78 104
78 108
79 83
79 103
83 103
80 81
80 85
80 86
80 105
80 106
80 110
81 85
81 105
85 105
81 82
81 86
81 87
81 106
81 107
81 111
82 86
82 106
86 106
82 83
82 87
82 88
82 107
82 108
82 112
83 87
83 107
87 107
83 84
83 88
83 89
83 108
83 109
83 113
84 88
84 108
88 108
85 86
85 90
85 91
85 110
85 111
85 115
86 90
86 110
90 110
86 87
86 91
86 92
86 111
86 112
86 116
87 91
87 111
91 111
87 88
87 92
87 93
87 112
87 113
87 117
88 92
88 112
92 112
88 89
88 93
88 94
88 113
88 114
88 118
89 93
89 113
93 113
90 91
90 95
90 96
90 115
90 116
90 120
91 95
91 115
95 115
91 92
91 96
91 97
91 116
91 117
91 121
92 96
92 116
96 116
92 93
92 97
92 98
92 117
92 118
92 122
93 97
93 117
97 117
93 94
93 98
93 99
93 118
93 119
93 123
94 98
94 118
98 118
4 9
4 29
4 34
9 29
9 14
9 34
9 39
14 34
14 19
14 39
14 44
19 39
19 24
19 44
19 49
24 44
29 34
29 54
29 59
34 54
34 39
34 59
34 64
39 59
39 44
39 64
39 69
44 64
44 49
44 69
44 74
49 69
54 59
54 79
54 84
59 79
59 64
59 84
59 89
64 84
64 69
64 89
64 94
69 89
69 74
69 94
69 99
74 94
79 84
79 104
79 109
84 104
84 89
84 109
84 114
89 109
89 94
89 114
89 119
94 114
94 99
94 119
94 124
99 119
20 21
20 45
20 46
21 45
21 22
21 46
21 47
22 46
22 23
22 47
22 48
23 47
23 24
23 48
23 49
24 48
45 46
45 70
45 71
46 70
46 47
46 71
46 72
47 71
47 48
47 72
47 73
48 72
48 49
48 73
48 74
49 73
70 71
70 95
70 96
71 95
71 72
71 96
71 97
72 96
72 73
72 97
72 98
73 97
73 74
73 98
73 99
74 98
95 96
95 120
95 121
96 120
96 97
96 121
96 122
97 121
97 98
97 122
97 123
98 122
98 99
98 123
98 124
99 123
100 101
100 105
100 106
101 105
101 102
101 106
101 107
102 106
102 103
102 107
102 108
103 107
103 104
103 108
103 109
104 108
105 106
105 110
105 111
106 110
106 107
106 111
106 112
107 111
107 108
107 112
107 113
108 112
108 109
108 113
108 114
109 113
110 111
110 115
110 116
111 115
111 112
111 116
111 117
112 116
112 113
112 117
112 118
113 117
113 114
113 118
113 119
114 118
115 116
115 120
115 121
116 120
116 117
116 121
116 122
117 121
117 118
117 122
117 123
118 122
118 119
118 123
118 124
119 123
24 49
49 74
74 99
99 124
120 121
121 122
122 123
123 124
104 109
109 114
114 119
119 124
              </DataArray> 
              <DataArray type="Int32" Name="offsets" format="ascii"> 
2
4
6
8
10
12
14
16
18
20
22
24
26
28
30
32
34
36
38
40
42
44
46
48
50
52
54
56
58
60
62
64
66
68
70
72
74
76
78
80
82
84
86
88
90
92
94
96
98
100
102
104
106
108
110
112
114
116
118
120
122
124
126
128
130
132
134
136
138
140
142
144
146
148
150
152
154
156
158
160
162
164
166
168
170
172
174
176
178
180
182
184
186
188
190
192
194
196
198
200
202
204
206
208
210
212
214
216
218
220
222
224
226
228
230
232
234
236
238
240
242
244
246
248
250
252
254
256
258
260
262
264
266
268
270
272
274
276
278
280
282
284
286
288
290
292
294
296
298
300
302
304
306
308
310
312
314
316
318
320
322
324
326
328
330
332
334
336
338
340
342
344
346
348
350
352
354
356
358
360
362
364
366
368
370
372
374
376
378
380
382
384
386
388
390
392
394
396
398
400
402
404
406
408
410
412
414
416
418
420
422
424
426
428
430
432
434
436
438
440
442
444
446
448
450
452
454
456
458
460
462
464
466
468
470
472
474
476
478
480
482
484
486
488
490
492
494
496
498
500
502
504
506
508
510
512
514
516
518
520
522
524
526
528
530
532
534
536
538
540
542
544
546
548
550
552
554
556
558
560
562
564
566
568
570
572
574
576
578
580
582
584
586
588
590
592
594
596
598
600
602
604
606
608
610
612
614
616
618
620
622
624
626
628
630
632
634
636
638
640
642
644
646
648
650
652
654
656
658
660
662
664
666
668
670
672
674
676
678
680
682
684
686
688
690
692
694
696
698
700
702
704
706
708
710
712
714
716
718
720
722
724
726
728
730
732
734
736
738
740
742
744
746
748
750
752
754
756
758
760
762
764
766
768
770
772
774
776
778
780
782
784
786
788
790
792
794
796
798
800
802
804
806
808
810
812
814
816
818
820
822
824
826
828
830
832
834
836
838
840
842
844
846
848
850
852
854
856
858
860
862
864
866
868
870
872
874
876
878
880
882
884
886
888
890
892
894
896
898
900
902
904
906
908
910
912
914
916
918
920
922
924
926
928
930
932
934
936
938
940
942
944
946
948
950
952
954
956
958
960
962
964
966
968
970
972
974
976
978
980
982
984
986
988
990
992
994
996
998
1000
1002
1004
1006
1008
1010
1012
1014
1016
1018
1020
1022
1024
1026
1028
1030
1032
1034
1036
1038
1040
1042
1044
1046
1048
1050
1052
1054
1056
1058
1060
1062
1064
1066
1068
1070
1072
1074
1076
1078
1080
1082
1084
1086
1088
1090
1092
1094
1096
1098
1100
1102
1104
1106
1108
1110
1112
1114
1116
1118
1120
1122
1124
1126
1128
1130
1132
1134
1136
1138
1140
1142
1144
1146
1148
1150
1152
1154
1156
1158
1160
1162
1164
1166
1168
1170
1172
1174
1176
1178
1180
1182
1184
1186
1188
1190
1192
1194
1196
1198
1200
1202
1204
1206
1208
1210
1212
1214
1216
1218
1220
1222
1224
1226
1228
1230
1232
1234
1236
1238
1240
1242
1244
1246
1248
1250
1252
1254
1256
1258
1260
1262
1264
1266
1268
1270
1272
1274
1276
1278
1280
1282
1284
1286
1288
1290
1292
1294
1296
1298
1300
1302
1304
1306
1308
1310
1312
1314
1316
1318
1320
1322
1324
1326
1328
1330
1332
1334
1336
1338
1340
1342
1344
1346
1348
1350
1352
1354
1356
1358
1360
1362
1364
1366
1368
1370
1372
1374
1376
1378
1380
1382
1384
1386
1388
1390
1392
1394
1396
1398
1400
1402
1404
1406
1408
1410
1412
1414
1416
1418
1420
1422
1424
1426
1428
1430
1432
1434
1436
1438
1440
1442
1444
1446
1448
1450
1452
1454
1456
1458
1460
1462
1464
1466
1468
1470
1472
1474
1476
1478
1480
1482
1484
1486
1488
1490
1492
1494
1496
1498
1500
1502
1504
1506
1508
1510
1512
1514
1516
1518
1520
1522
1524
1526
1528
1530
1532
1534
1536
1538
1540
1542
1544
1546
1548
1550
1552
1554
1556
1558
1560
             </DataArray> 
              <DataArray type="UInt8" Name="types" format="ascii"> 
3
3
3
3
3
3
3
3
3
3
3
3
3
3
3
3
3
3
3
3
3
3
3
3
3
3
3
3
3
3
3
3
3
3
3
3
3
3
3
3
3
3
3
3
3
3
3
3
3
3
3
3
3
3
3
3
3
3
3
3
3
3
3
3
3
3
3
3
3
3
3
3
3
3
3
3
3
3
3
3
3
3
3
3
3
3
3
3
3
3
3
3
3
3
3
3
3
3
3
3
3
3
3
3
3
3
3
3
3
3
3
3
3
3
3
3
3
3
3
3
3
3
3
3
3
3
3
3
3
3
3
3
3
3
3
3
3
3
3
3
3
3
3
3
3
3
3
3
3
3
3
3
3
3
3
3
3
3
3
3
3
3
3
3
3
3
3
3
3
3
3
3
3
3
3
3
3
3
3
3
3
3
3
3
3
3
3
3
3
3
3
3
3
3
3
3
3
3
3
3
3
3
3
3
3
3
3
3
3
3
3
3
3
3
3
3
3
3
3
3
3
3
3
3
3
3
3
3
3
3
3
3
3
3
3
3
3
3
3
3
3
3
3
3
3
3
3
3
3
3
3
3
3
3
3
3
3
3
3
3
3
3
3
3
3
3
3
3
3
3
3
3
3
3
3
3
3
3
3
3
3
3
3
3
3
3
3
3
3
3
3
3
3
3
3
3
3
3
3
3
3
3
3
3
3
3
3
3
3
3
3
3
3
3
3
3
3
3
3
3
3
3
3
3
3
3
3
3
3
3
3
3
3
3
3
3
3
3
3
3
3
3
3
3
3
3
3
3
3
3
3
3
3
3
3
3
3
3
3
3
3
3
3
3
3
3
3
3
3
3
3
3
3
3
3
3
3
3
3
3
3
3
3
3
3
3
3
3
3
3
3
3
3
3
3
3
3
3
3
3
3
3
3
3
3
3
3
3
3
3
3
3
3
3
3
3
3
3
3
3
3
3
3
3
3
3
3
3
3
3
3
3
3
3
3
3
3
3
3
3
3
3
3
3
3
3
3
3
3
3
3
3
3
3
3
3
3
3
3
3
3
3
3
3
3
3
3
3
3
3
3
3
3
3
3
3
3
3
3
3
3
3
3
3
3
3
3
3
3
3
3
3
3
3
3
3
3
3
3
3
3
3
3
3
3
3
3
3
3
3
3
3
3
3
3
3
3
3
3
3
3
3
3
3
3
3
3
3
3
3
3
3
3
3
3
3
3
3
3
3
3
3
3
3
3
3
3
3
3
3
3
3
3
3
3
3
3
3
3
3
3
3
3
3
3
3
3
3
3
3
3
3
3
3
3
3
3
3
3
3
3
3
3
3
3
3
3
3
3
3
3
3
3
3
3
3
3
3
3
3
3
3
3
3
3
3
3
3
3
3
3
3
3
3
3
3
3
3
3
3
3
3
3
3
3
3
3
3
3
3
3
3
3
3
3
3
3
3
3
3
3
3
3
3
3
3
3
3
3
3
3
3
3
3
3
3
3
3
3
3
3
3
3
3
3
3
3
3
3
3
3
3
3
3
3
3
3
3
3
3
3
3
3
3
3
3
3
3
3
3
3
3
3
3
3
3
3
3
3
3
3
3
3
3
3
3
3
3
3
3
3
3
3
3
3
3
3
3
3
3
3
3
3
3
3
3
3
3
3
3
3
3
3
3
3
3
3
3
3
3
3
3
3
3
3
3
3
3
3
3
3
3
3
3
3
3
3
3
3
3
3
3
3
3
3
3
3
3
3
3
3
3
3
3
3
3
3
3
3
3
             </DataArray> 
          </Cells> 
          <PointData> 
              <DataArray type="Float64" Name="Displacements(mm)" NumberOfComponents="3" format="ascii"> 
0.0 0.0 0.0
0.0 0.0 0.0
0.0 0.0 0.0
0.0 0.0 0.0
0.0 0.0 0.0
0.0 0.0 0.0
0.0 0.0 0.0
0.0 0.0 0.0
0.0 0.0 0.0
0.0 0.0 0.0
0.0 0.0 0.0
0.0 0.0 0.0
0.0 0.0 0.0
0.0 0.0 0.0
0.0 0.0 0.0
0.0 0.0 0.0
0.0 0.0 0.0
0.0 0.0 0.0
0.0 0.0 0.0
0.0 0.0 0.0
0.0 0.0 0.0
0.0 0.0 0.0
0.0 0.0 0.0
0.0 0.0 0.0
0.0 0.0 0.0
0.0 0.0 0.0
0.0 0.0 0.0
0.0 0.0 0.0
0.0 0.0 0.0
0.0 0.0 0.0
0.0 0.0 0.0
0.0 0.0 0.0
0.0 0.0 0.0
0.0 0.0 0.0
0.0 0.0 0.0
0.0 0.0 0.0
0.0 0.0 0.0
0.0 0.0 0.0
0.0 0.0 0.0
0.0 0.0 0.0
0.0 0.0 0.0
0.0 0.0 0.0
0.0 0.0 0.0
0.0 0.0 0.0
0.0 0.0 0.0
0.0 0.0 0.0
0.0 0.0 0.0
0.0 0.0 0.0
0.0 0.0 0.0
0.0 0.0 0.0
0.0 0.0 0.0
0.0 0.0 0.0
0.0 0.0 0.0
0.0 0.0 0.0
0.0 0.0 0.0
0.0 0.0 0.0
0.0 0.0 0.0
0.0 0.0 0.0
0.0 0.0 0.0
0.0 0.0 0.0
0.0 0.0 0.0
0.0 0.0 0.0
0.0 0.0 0.0
0.0 0.0 0.0
0.0 0.0 0.0
0.0 0.0 0.0
0.0 0.0 0.0
0.0 0.0 0.0
0.0 0.0 0.0
0.0 0.0 0.0
0.0 0.0 0.0
0.0 0.0 0.0
0.0 0.0 0.0
0.0 0.0 0.0
0.0 0.0 0.0
0.0 0.0 0.0
0.0 0.0 0.0
0.0 0.0 0.0
0.0 0.0 0.0
0.0 0.0 0.0
0.0 0.0 0.0
0.0 0.0 0.0
0.0 0.0 0.0
0.0 0.0 0.0
0.0 0.0 0.0
0.0 0.0 0.0
0.0 0.0 0.0
0.0 0.0 0.0
0.0 0.0 0.0
0.0 0.0 0.0
0.0 0.0 0.0
0.0 0.0 0.0
0.0 0.0 0.0
0.0 0.0 0.0
0.0 0.0 0.0
0.0 0.0 0.0
0.0 0.0 0.0
0.0 0.0 0.0
0.0 0.0 0.0
0.0 0.0 0.0
0.0 0.0 0.0
0.0 0.0 0.0
0.0 0.0 0.0
0.0 0.0 0.0
0.0 0.0 0.0
0.0 0.0 0.0
0.0 0.0 0.0
0.0 0.0 0.0
0.0 0.0 0.0
0.0 0.0 0.0
0.0 0.0 0.0
0.0 0.0 0.0
0.0 0.0 0.0
0.0 0.0 0.0
0.0 0.0 0.0
0.0 0.0 0.0
0.0 0.0 0.0
0.0 0.0 0.0
0.0 0.0 0.0
0.0 0.0 0.0
0.0 0.0 0.0
0.0 0.0 0.0
0.0 0.0 0.0
0.0 0.0 0.0
0.0 0.0 0.0
              </DataArray> 
              <DataArray type="Float64" Name="Giros(rad)" NumberOfComponents="3" format="ascii"> 
0.0 0.0 0.0
0.0 0.0 0.0
0.0 0.0 0.0
0.0 0.0 0.0
0.0 0.0 0.0
0.0 0.0 0.0
0.0 0.0 0.0
0.0 0.0 0.0
0.0 0.0 0.0
0.0 0.0 0.0
0.0 0.0 0.0
0.0 0.0 0.0
0.0 0.0 0.0
0.0 0.0 0.0
0.0 0.0 0.0
0.0 0.0 0.0
0.0 0.0 0.0
0.0 0.0 0.0
0.0 0.0 0.0
0.0 0.0 0.0
0.0 0.0 0.0
0.0 0.0 0.0
0.0 0.0 0.0
0.0 0.0 0.0
0.0 0.0 0.0
0.0 0.0 0.0
0.0 0.0 0.0
0.0 0.0 0.0
0.0 0.0 0.0
0.0 0.0 0.0
0.0 0.0 0.0
0.0 0.0 0.0
0.0 0.0 0.0
0.0 0.0 0.0
0.0 0.0 0.0
0.0 0.0 0.0
0.0 0.0 0.0
0.0 0.0 0.0
0.0 0.0 0.0
0.0 0.0 0.0
0.0 0.0 0.0
0.0 0.0 0.0
0.0 0.0 0.0
0.0 0.0 0.0
0.0 0.0 0.0
0.0 0.0 0.0
0.0 0.0 0.0
0.0 0.0 0.0
0.0 0.0 0.0
0.0 0.0 0.0
0.0 0.0 0.0
0.0 0.0 0.0
0.0 0.0 0.0
0.0 0.0 0.0
0.0 0.0 0.0
0.0 0.0 0.0
0.0 0.0 0.0
0.0 0.0 0.0
0.0 0.0 0.0
0.0 0.0 0.0
0.0 0.0 0.0
0.0 0.0 0.0
0.0 0.0 0.0
0.0 0.0 0.0
0.0 0.0 0.0
0.0 0.0 0.0
0.0 0.0 0.0
0.0 0.0 0.0
0.0 0.0 0.0
0.0 0.0 0.0
0.0 0.0 0.0
0.0 0.0 0.0
0.0 0.0 0.0
0.0 0.0 0.0
0.0 0.0 0.0
0.0 0.0 0.0
0.0 0.0 0.0
0.0 0.0 0.0
0.0 0.0 0.0
0.0 0.0 0.0
0.0 0.0 0.0
0.0 0.0 0.0
0.0 0.0 0.0
0.0 0.0 0.0
0.0 0.0 0.0
0.0 0.0 0.0
0.0 0.0 0.0
0.0 0.0 0.0
0.0 0.0 0.0
0.0 0.0 0.0
0.0 0.0 0.0
0.0 0.0 0.0
0.0 0.0 0.0
0.0 0.0 0.0
0.0 0.0 0.0
0.0 0.0 0.0
0.0 0.0 0.0
0.0 0.0 0.0
0.0 0.0 0.0
0.0 0.0 0.0
0.0 0.0 0.0
0.0 0.0 0.0
0.0 0.0 0.0
0.0 0.0 0.0
0.0 0.0 0.0
0.0 0.0 0.0
0.0 0.0 0.0
0.0 0.0 0.0
0.0 0.0 0.0
0.0 0.0 0.0
0.0 0.0 0.0
0.0 0.0 0.0
0.0 0.0 0.0
0.0 0.0 0.0
0.0 0.0 0.0
0.0 0.0 0.0
0.0 0.0 0.0
0.0 0.0 0.0
0.0 0.0 0.0
0.0 0.0 0.0
0.0 0.0 0.0
0.0 0.0 0.0
0.0 0.0 0.0
0.0 0.0 0.0
0.0 0.0 0.0
              </DataArray> 
              <DataArray type="Float64" Name="Fuerzas(N)" NumberOfComponents="3" format="ascii"> 
0.0 0.0 0.0
0.0 0.0 0.0
0.0 0.0 0.0
0.0 0.0 0.0
0.0 0.0 0.0
0.0 0.0 0.0
0.0 0.0 0.0
0.0 0.0 0.0
0.0 0.0 0.0
0.0 0.0 0.0
0.0 0.0 0.0
0.0 0.0 0.0
0.0 0.0 0.0
0.0 0.0 0.0
0.0 0.0 0.0
0.0 0.0 0.0
0.0 0.0 0.0
0.0 0.0 0.0
0.0 0.0 0.0
0.0 0.0 0.0
0.0 0.0 0.0
0.0 0.0 0.0
0.0 0.0 0.0
0.0 0.0 0.0
0.0 0.0 0.0
0.0 0.0 0.0
0.0 0.0 0.0
0.0 0.0 0.0
0.0 0.0 0.0
0.0 0.0 0.0
0.0 0.0 0.0
0.0 0.0 0.0
0.0 0.0 0.0
0.0 0.0 0.0
0.0 0.0 0.0
0.0 0.0 0.0
0.0 0.0 0.0
0.0 0.0 0.0
0.0 0.0 0.0
0.0 0.0 0.0
0.0 0.0 0.0
0.0 0.0 0.0
0.0 0.0 0.0
0.0 0.0 0.0
0.0 0.0 0.0
0.0 0.0 0.0
0.0 0.0 0.0
0.0 0.0 0.0
0.0 0.0 0.0
0.0 0.0 0.0
0.0 0.0 0.0
0.0 0.0 0.0
0.0 0.0 0.0
0.0 0.0 0.0
0.0 0.0 0.0
0.0 0.0 0.0
0.0 0.0 0.0
0.0 0.0 0.0
0.0 0.0 0.0
0.0 0.0 0.0
0.0 0.0 0.0
0.0 0.0 0.0
0.0 0.0 0.0
0.0 0.0 0.0
0.0 0.0 0.0
0.0 0.0 0.0
0.0 0.0 0.0
0.0 0.0 0.0
0.0 0.0 0.0
0.0 0.0 0.0
0.0 0.0 0.0
0.0 0.0 0.0
0.0 0.0 0.0
0.0 0.0 0.0
0.0 0.0 0.0
0.0 0.0 0.0
0.0 0.0 0.0
0.0 0.0 0.0
0.0 0.0 0.0
0.0 0.0 0.0
0.0 0.0 0.0
0.0 0.0 0.0
0.0 0.0 0.0
0.0 0.0 0.0
0.0 0.0 0.0
0.0 0.0 0.0
0.0 0.0 0.0
0.0 0.0 0.0
0.0 0.0 0.0
0.0 0.0 0.0
0.0 0.0 0.0
0.0 0.0 0.0
0.0 0.0 0.0
0.0 0.0 0.0
0.0 0.0 0.0
0.0 0.0 0.0
0.0 0.0 0.0
0.0 0.0 0.0
0.0 0.0 0.0
0.0 0.0 0.0
0.0 0.0 0.0
0.0 0.0 0.0
0.0 0.0 0.0
0.0 0.0 0.0
0.0 0.0 0.0
0.0 0.0 0.0
0.0 0.0 0.0
0.0 0.0 0.0
0.0 0.0 0.0
0.0 0.0 0.0
0.0 0.0 0.0
0.0 0.0 0.0
0.0 0.0 0.0
0.0 0.0 0.0
0.0 0.0 0.0
0.0 0.0 0.0
0.0 0.0 0.0
0.0 0.0 0.0
0.0 0.0 0.0
0.0 0.0 0.0
0.0 0.0 0.0
0.0 0.0 0.0
0.0 0.0 0.0
0.0 0.0 0.0
0.0 0.0 0.0
              </DataArray> 
              <DataArray type="Float64" Name="Momentos(N·mm)" NumberOfComponents="3" format="ascii"> 
0.0 0.0 0.0
0.0 0.0 0.0
0.0 0.0 0.0
0.0 0.0 0.0
0.0 0.0 0.0
0.0 0.0 0.0
0.0 0.0 0.0
0.0 0.0 0.0
0.0 0.0 0.0
0.0 0.0 0.0
0.0 0.0 0.0
0.0 0.0 0.0
0.0 0.0 0.0
0.0 0.0 0.0
0.0 0.0 0.0
0.0 0.0 0.0
0.0 0.0 0.0
0.0 0.0 0.0
0.0 0.0 0.0
0.0 0.0 0.0
0.0 0.0 0.0
0.0 0.0 0.0
0.0 0.0 0.0
0.0 0.0 0.0
0.0 0.0 0.0
0.0 0.0 0.0
0.0 0.0 0.0
0.0 0.0 0.0
0.0 0.0 0.0
0.0 0.0 0.0
0.0 0.0 0.0
0.0 0.0 0.0
0.0 0.0 0.0
0.0 0.0 0.0
0.0 0.0 0.0
0.0 0.0 0.0
0.0 0.0 0.0
0.0 0.0 0.0
0.0 0.0 0.0
0.0 0.0 0.0
0.0 0.0 0.0
0.0 0.0 0.0
0.0 0.0 0.0
0.0 0.0 0.0
0.0 0.0 0.0
0.0 0.0 0.0
0.0 0.0 0.0
0.0 0.0 0.0
0.0 0.0 0.0
0.0 0.0 0.0
0.0 0.0 0.0
0.0 0.0 0.0
0.0 0.0 0.0
0.0 0.0 0.0
0.0 0.0 0.0
0.0 0.0 0.0
0.0 0.0 0.0
0.0 0.0 0.0
0.0 0.0 0.0
0.0 0.0 0.0
0.0 0.0 0.0
0.0 0.0 0.0
0.0 0.0 0.0
0.0 0.0 0.0
0.0 0.0 0.0
0.0 0.0 0.0
0.0 0.0 0.0
0.0 0.0 0.0
0.0 0.0 0.0
0.0 0.0 0.0
0.0 0.0 0.0
0.0 0.0 0.0
0.0 0.0 0.0
0.0 0.0 0.0
0.0 0.0 0.0
0.0 0.0 0.0
0.0 0.0 0.0
0.0 0.0 0.0
0.0 0.0 0.0
0.0 0.0 0.0
0.0 0.0 0.0
0.0 0.0 0.0
0.0 0.0 0.0
0.0 0.0 0.0
0.0 0.0 0.0
0.0 0.0 0.0
0.0 0.0 0.0
0.0 0.0 0.0
0.0 0.0 0.0
0.0 0.0 0.0
0.0 0.0 0.0
0.0 0.0 0.0
0.0 0.0 0.0
0.0 0.0 0.0
0.0 0.0 0.0
0.0 0.0 0.0
0.0 0.0 0.0
0.0 0.0 0.0
0.0 0.0 0.0
0.0 0.0 0.0
0.0 0.0 0.0
0.0 0.0 0.0
0.0 0.0 0.0
0.0 0.0 0.0
0.0 0.0 0.0
0.0 0.0 0.0
0.0 0.0 0.0
0.0 0.0 0.0
0.0 0.0 0.0
0.0 0.0 0.0
0.0 0.0 0.0
0.0 0.0 0.0
0.0 0.0 0.0
0.0 0.0 0.0
0.0 0.0 0.0
0.0 0.0 0.0
0.0 0.0 0.0
0.0 0.0 0.0
0.0 0.0 0.0
0.0 0.0 0.0
0.0 0.0 0.0
0.0 0.0 0.0
0.0 0.0 0.0
0.0 0.0 0.0
0.0 0.0 0.0
              </DataArray> 
          </PointData> 
       </Piece> 
   </UnstructuredGrid> 
</VTKFile> 
